                               Psi4 1.4a2.dev37

  ==> Input File <==

--------------------------------------------------------------------------
with open('5gly.xyz') as fp:
    qmol = qcdb.Molecule.from_string(fp.read())
mol = geometry(qmol.create_psi4_string_from_molecule())

set {
basis def2-TZVP
ints_tolerance 2.5e-11
scf_type mem_df
}
memory 60 GiB
#energy('scf')
set scf_type disk_df # can also do in-core despite name
energy('scf')
--------------------------------------------------------------------------

    Molecular point group: c1

    Geometry (in Angstrom), charge = 0, multiplicity = 1:

       Center              X                  Y                   Z               Mass
    ------------   -----------------  -----------------  -----------------  -----------------
         N           -7.358511107083    -0.700986296785    -5.213070939237    14.003074004430
         C           -6.212085899006     0.142913745409    -4.977130199068    12.000000000000
         C           -5.745709697201    -0.019329729807    -3.539662764407    12.000000000000
         O           -6.529937061029    -0.169746331680    -2.624032993052    15.994914619570
         H           -5.408951003692    -0.121570641267    -5.671137602584     1.007825032230
         H           -6.394518060046     1.221716329460    -5.116624076546     1.007825032230
         H           -7.996865394964    -0.626617998538    -4.432883609397     1.007825032230
         H           -7.849674865238    -0.411354472795    -6.045377967618     1.007825032230
         N           -4.415295936393     0.073495146145    -3.351494464271    14.003074004430
         C           -3.832358997902    -0.024088192802    -2.047537440997    12.000000000000
         C           -2.319071208773     0.059225294601    -2.168697502231    12.000000000000
         O           -1.752892997326     0.093419719611    -3.243934237213    15.994914619570
         H           -4.199826878715     0.770731691903    -1.390291158486     1.007825032230
         H           -4.103529694541    -0.969469416680    -1.564948982486     1.007825032230
         H           -3.772971321326     0.117515148525    -4.126987483496     1.007825032230
         N           -1.667662561759     0.077662242102    -0.993798529213    14.003074004430
         C           -0.238757754787     0.149761501070    -0.921985500377    12.000000000000
         C            0.181248873805     0.214008942964     0.538392244876    12.000000000000
         O           -0.625123985943     0.306143085559     1.442491748531    15.994914619570
         H            0.225451192144    -0.715068502220    -1.407183187053     1.007825032230
         H            0.137529651328     1.035514161831    -1.445128774578     1.007825032230
         H           -2.164770772485     0.096247771787    -0.115443832911     1.007825032230
         N            1.509156999333     0.171474160373     0.737078772365    14.003074004430
         C            2.079480100090     0.224950841564     2.050388481134    12.000000000000
         C            3.578096083868    -0.006167691143     1.945335565398    12.000000000000
         O            4.133442626756    -0.200656456430     0.882758537758    15.994914619570
         H            1.887518418199     1.192243404812     2.527010486709     1.007825032230
         H            1.633901393922    -0.533594905424     2.701779629864     1.007825032230
         H            2.155135466316     0.047255267811    -0.028426806127     1.007825032230
         N            4.235299381733     0.021431826367     3.118788496532    14.003074004430
         C            5.649796483520    -0.192673800171     3.179972412613    12.000000000000
         C            6.124170149177    -0.071713863267     4.616356650029    12.000000000000
         O            5.400687640986     0.188491976316     5.529493399175    15.994914619570
         H            5.913547412275    -1.182800322583     2.789402682512     1.007825032230
         H            6.184278504156     0.534876956519     2.557699773505     1.007825032230
         H            3.757952615639     0.202009352386     3.989236111565     1.007825032230
         O            7.426919057457    -0.273816786816     4.805446220657    15.994914619570
         H            7.886128610148    -0.485258088741     3.985692875248     1.007825032230

  Charge       = 0
  Multiplicity = 1
  Basis Set: DEF2-TZVP
    Blend: DEF2-TZVP
  Basis Set: (DEF2-TZVP AUX)
    Blend: DEF2-TZVP-JKFIT

    Orbital Energies [Eh]
    ---------------------

    Doubly Occupied:

       1A    -20.642311     2A    -20.573480     3A    -20.554245
       4A    -20.541946     5A    -20.532502     6A    -20.511920
       7A    -15.617226     8A    -15.603476     9A    -15.593711
      10A    -15.579881    11A    -15.534807    12A    -11.415443
      13A    -11.382662    14A    -11.370600    15A    -11.360606
      16A    -11.340577    17A    -11.320214    18A    -11.302263
      19A    -11.292334    20A    -11.279864    21A    -11.260446
      22A     -1.500637    23A     -1.428284    24A     -1.414625
      25A     -1.403627    26A     -1.401983    27A     -1.383305
      28A     -1.276879    29A     -1.263387    30A     -1.253414
      31A     -1.237466    32A     -1.182204    33A     -1.068439
      34A     -1.039828    35A     -1.005390    36A     -0.965490
      37A     -0.915675    38A     -0.872411    39A     -0.837939
      40A     -0.822488    41A     -0.810375    42A     -0.794461
      43A     -0.790547    44A     -0.747104    45A     -0.715928
      46A     -0.711031    47A     -0.709970    48A     -0.697204
      49A     -0.688266    50A     -0.683416    51A     -0.679779
      52A     -0.670576    53A     -0.664630    54A     -0.651928
      55A     -0.651143    56A     -0.636027    57A     -0.632080
      58A     -0.623240    59A     -0.619785    60A     -0.606473
      61A     -0.603964    62A     -0.591068    63A     -0.577983
      64A     -0.573854    65A     -0.562067    66A     -0.553050
      67A     -0.547533    68A     -0.529366    69A     -0.512736
      70A     -0.509268    71A     -0.486610    72A     -0.467465
      73A     -0.455074    74A     -0.444554    75A     -0.440325
      76A     -0.424984    77A     -0.423864    78A     -0.409416
      79A     -0.395768    80A     -0.385569

  @DF-RHF Final Energy: -1110.54027046758983

   => Energetics <=

    Nuclear Repulsion Energy =           1547.1551909877091475
    One-Electron Energy =               -4594.2653679604791250
    Two-Electron Energy =                1936.5699065051803700
    Total Energy =                      -1110.5402704675898349

  Dipole Moment: [D]
     X:     6.3571      Y:     0.9209      Z:    -0.4266     Total:     6.4376

*** Psi4 exiting successfully. Buy a developer a beer!
