                         Program Version 4.1.1  - RELEASE  -
|  1> ! rhf def2-tzvp conv rijk def2/jk kdiis NOAUTOSTART
|  2> %scf
|  3> maxdisk 20000
|  4> maxintmem 10000
|  5> end
|  6> %output
|  7> Print[P_SCFIterInfo] 3
|  8> end
|  9> %maxcore 10000
| 10> *xyzfile 0 1 5gly.xyz
| 11>
| 12>                          ****END OF INPUT****

CARTESIAN COORDINATES (ANGSTROEM)
---------------------------------
  N     -7.010979   -1.213049   -0.082146
  C     -5.864553   -0.369148    0.153795
  C     -5.398177   -0.531392    1.591262
  O     -6.182405   -0.681809    2.506892
  H     -5.061419   -0.633633   -0.540213
  H     -6.046986    0.709654    0.014301
  H     -7.649333   -1.138680    0.698041
  H     -7.502142   -0.923417   -0.914453
  N     -4.067763   -0.438567    1.779430
  C     -3.484827   -0.536150    3.083387
  C     -1.971539   -0.452837    2.962227
  O     -1.405361   -0.418643    1.886991
  H     -3.852294    0.258669    3.740634
  H     -3.755997   -1.481532    3.565976
  H     -3.425439   -0.394547    1.003937
  N     -1.320130   -0.434400    4.137126
  C      0.108775   -0.362301    4.208939
  C      0.528781   -0.298053    5.669317
  O     -0.277591   -0.205919    6.573417
  H      0.572984   -1.227131    3.723742
  H      0.485062    0.523452    3.685796
  H     -1.817238   -0.415814    5.015481
  N      1.856689   -0.340588    5.868004
  C      2.427013   -0.287111    7.181313
  C      3.925629   -0.518230    7.076260
  O      4.480975   -0.712719    6.013683
  H      2.235051    0.680181    7.657935
  H      1.981434   -1.045657    7.832704
  H      2.502668   -0.464807    5.102498
  N      4.582832   -0.490630    8.249713
  C      5.997329   -0.704736    8.310897
  C      6.471703   -0.583776    9.747281
  O      5.748220   -0.323570   10.660418
  H      6.261080   -1.694863    7.920328
  H      6.531811    0.022815    7.688625
  H      4.105485   -0.310053    9.120161
  O      7.774452   -0.785879    9.936371
  H      8.233661   -0.997320    9.116618

 Total Charge           Charge          ....    0
 Multiplicity           Mult            ....    1
 Number of Electrons    NEL             ....  160
 Basis Dimension        Dim             ....  753
E(SCF)       =  -1109.556073697
E(SCF)       =  -1109.835795234
E(SCF)       =  -1110.073087349
E(SCF)       =  -1110.357575850
E(SCF)       =  -1110.539350286
E(SCF)       =  -1110.540116760
E(SCF)       =  -1110.540254854
E(SCF)       =  -1110.540268488
E(SCF)       =  -1110.540270028
E(SCF)       =  -1110.540270515
E(SCF)       =  -1110.540270571

ORBITAL ENERGIES
----------------

  NO   OCC          E(Eh)            E(eV)
   0   2.0000     -20.642273      -561.7048
   1   2.0000     -20.573502      -559.8334
   2   2.0000     -20.554220      -559.3088
   3   2.0000     -20.541935      -558.9745
   4   2.0000     -20.532484      -558.7173
   5   2.0000     -20.511924      -558.1578
   6   2.0000     -15.617261      -424.9673
   7   2.0000     -15.603499      -424.5928
   8   2.0000     -15.593730      -424.3270
   9   2.0000     -15.579885      -423.9502
  10   2.0000     -15.534817      -422.7239
  11   2.0000     -11.415447      -310.6301
  12   2.0000     -11.382659      -309.7379
  13   2.0000     -11.370594      -309.4096
  14   2.0000     -11.360592      -309.1374
  15   2.0000     -11.340562      -308.5924
  16   2.0000     -11.320241      -308.0394
  17   2.0000     -11.302277      -307.5506
  18   2.0000     -11.292345      -307.2803
  19   2.0000     -11.279865      -306.9407
  20   2.0000     -11.260469      -306.4129
  21   2.0000      -1.500633       -40.8343
  22   2.0000      -1.428279       -38.8654
  23   2.0000      -1.414620       -38.4938
  24   2.0000      -1.403617       -38.1944
  25   2.0000      -1.401986       -38.1500
  26   2.0000      -1.383300       -37.6415
  27   2.0000      -1.276893       -34.7460
  28   2.0000      -1.263394       -34.3787
  29   2.0000      -1.253418       -34.1072
  30   2.0000      -1.237464       -33.6731
  31   2.0000      -1.182206       -32.1695
  32   2.0000      -1.068446       -29.0739
  33   2.0000      -1.039832       -28.2953
  34   2.0000      -1.005393       -27.3581
  35   2.0000      -0.965494       -26.2724
  36   2.0000      -0.915676       -24.9168
  37   2.0000      -0.872410       -23.7395
  38   2.0000      -0.837949       -22.8018
  39   2.0000      -0.822495       -22.3812
  40   2.0000      -0.810379       -22.0515
  41   2.0000      -0.794460       -21.6184
  42   2.0000      -0.790554       -21.5121
  43   2.0000      -0.747106       -20.3298
  44   2.0000      -0.715932       -19.4815
  45   2.0000      -0.711034       -19.3482
  46   2.0000      -0.709976       -19.3194
  47   2.0000      -0.697207       -18.9720
  48   2.0000      -0.688268       -18.7287
  49   2.0000      -0.683414       -18.5967
  50   2.0000      -0.679781       -18.4978
  51   2.0000      -0.670576       -18.2473
  52   2.0000      -0.664630       -18.0855
  53   2.0000      -0.651928       -17.7399
  54   2.0000      -0.651147       -17.7186
  55   2.0000      -0.636028       -17.3072
  56   2.0000      -0.632080       -17.1998
  57   2.0000      -0.623242       -16.9593
  58   2.0000      -0.619788       -16.8653
  59   2.0000      -0.606477       -16.5031
  60   2.0000      -0.603966       -16.4348
  61   2.0000      -0.591070       -16.0838
  62   2.0000      -0.577983       -15.7277
  63   2.0000      -0.573853       -15.6153
  64   2.0000      -0.562069       -15.2947
  65   2.0000      -0.553050       -15.0493
  66   2.0000      -0.547532       -14.8991
  67   2.0000      -0.529363       -14.4047
  68   2.0000      -0.512737       -13.9523
  69   2.0000      -0.509263       -13.8578
  70   2.0000      -0.486615       -13.2415
  71   2.0000      -0.467460       -12.7202
  72   2.0000      -0.455070       -12.3831
  73   2.0000      -0.444545       -12.0967
  74   2.0000      -0.440328       -11.9819
  75   2.0000      -0.424981       -11.5643
  76   2.0000      -0.423864       -11.5339
  77   2.0000      -0.409415       -11.1407
  78   2.0000      -0.395765       -10.7693
  79   2.0000      -0.385567       -10.4918
  80   0.0000       0.095182         2.5900
  81   0.0000       0.119527         3.2525
  82   0.0000       0.131849         3.5878
  83   0.0000       0.138186         3.7602
  84   0.0000       0.138382         3.7656

MULLIKEN ATOMIC CHARGES
-----------------------
   0 N :   -0.566444
   1 C :   -0.050025
   2 C :    0.478240
   3 O :   -0.554592
   4 H :    0.088779
   5 H :    0.095575
   6 H :    0.254804
   7 H :    0.214275
   8 N :   -0.409177
   9 C :   -0.065204
  10 C :    0.470898
  11 O :   -0.554906
  12 H :    0.130854
  13 H :    0.135774
  14 H :    0.279163
  15 N :   -0.400672
  16 C :   -0.072984
  17 C :    0.468058
  18 O :   -0.549247
  19 H :    0.133948
  20 H :    0.137091
  21 H :    0.283617
  22 N :   -0.400894
  23 C :   -0.074414
  24 C :    0.471361
  25 O :   -0.547613
  26 H :    0.136219
  27 H :    0.144759
  28 H :    0.283912
  29 N :   -0.412752
  30 C :   -0.102299
  31 C :    0.524840
  32 O :   -0.446167
  33 H :    0.140665
  34 H :    0.144310
  35 H :    0.286266
  36 O :   -0.452180
  37 H :    0.356159
Sum of atomic charges:   -0.0000000

LOEWDIN ATOMIC CHARGES
----------------------
   0 N :   -0.168206
   1 C :   -0.275408
   2 C :   -0.397193
   3 O :    0.000261
   4 H :    0.122181
   5 H :    0.121347
   6 H :    0.158149
   7 H :    0.143218
   8 N :    0.104837
   9 C :   -0.207076
  10 C :   -0.391873
  11 O :   -0.000380
  12 H :    0.140067
  13 H :    0.142658
  14 H :    0.195786
  15 N :    0.109256
  16 C :   -0.205031
  17 C :   -0.392718
  18 O :    0.004267
  19 H :    0.140561
  20 H :    0.142847
  21 H :    0.200337
  22 N :    0.109753
  23 C :   -0.203616
  24 C :   -0.389451
  25 O :    0.006811
  26 H :    0.141805
  27 H :    0.144761
  28 H :    0.200292
  29 N :    0.109507
  30 C :   -0.222241
  31 C :   -0.441746
  32 O :    0.072255
  33 H :    0.143360
  34 H :    0.144872
  35 H :    0.201563
  36 O :    0.092810
  37 H :    0.201379

  Mayer bond orders larger than 0.1
B(  0-N ,  1-C ) :   1.0157 B(  0-N ,  6-H ) :   0.9176 B(  0-N ,  7-H ) :   0.9429
B(  1-C ,  2-C ) :   0.9698 B(  1-C ,  4-H ) :   0.9930 B(  1-C ,  5-H ) :   0.9538
B(  2-C ,  3-O ) :   1.8573 B(  2-C ,  8-N ) :   1.2336 B(  8-N ,  9-C ) :   0.9134
B(  8-N , 14-H ) :   0.8898 B(  9-C , 10-C ) :   0.9702 B(  9-C , 12-H ) :   0.9866
B(  9-C , 13-H ) :   0.9726 B( 10-C , 11-O ) :   1.8279 B( 10-C , 15-N ) :   1.2636
B( 15-N , 16-C ) :   0.9106 B( 15-N , 21-H ) :   0.8896 B( 16-C , 17-C ) :   0.9707
B( 16-C , 19-H ) :   0.9865 B( 16-C , 20-H ) :   0.9714 B( 17-C , 18-O ) :   1.8339
B( 17-C , 22-N ) :   1.2640 B( 22-N , 23-C ) :   0.9080 B( 22-N , 28-H ) :   0.8895
B( 23-C , 24-C ) :   0.9728 B( 23-C , 26-H ) :   0.9767 B( 23-C , 27-H ) :   0.9782
B( 24-C , 25-O ) :   1.8338 B( 24-C , 29-N ) :   1.2561 B( 29-N , 30-C ) :   0.9073
B( 29-N , 35-H ) :   0.8914 B( 30-C , 31-C ) :   0.9962 B( 30-C , 33-H ) :   0.9701
B( 30-C , 34-H ) :   0.9666 B( 31-C , 32-O ) :   1.9775 B( 31-C , 36-O ) :   1.1668
B( 36-O , 37-H ) :   0.8617

FINAL SINGLE POINT ENERGY     -1110.540270571297

DIPOLE MOMENT
-------------
                                X             Y             Z
Electronic contribution:     13.78505       0.20357      11.76518
Nuclear contribution   :    -11.28389       0.15873     -11.93301
                        -----------------------------------------
Total Dipole Moment    :      2.50116       0.36230      -0.16783
                        -----------------------------------------
Magnitude (a.u.)       :      2.53283
Magnitude (Debye)      :      6.43794

Rotational constants in cm-1:     0.061110     0.001840     0.001795
Rotational constants in MHz :  1832.029136    55.173951    53.814289

                             ****ORCA TERMINATED NORMALLY****
TOTAL RUN TIME: 0 days 0 hours 8 minutes 28 seconds 690 msec
